12
Properties=species:S:1:pos:R:3:molID:I:1:momenta:R:3:forces:R:3 Nmols=1 Comp=DMC(1) energy=-590.6741943359375 free_energy=-590.6741943359375 stress="0.0 0.0 0.0 0.0 0.0 0.0 0.0 0.0 0.0" pbc="F F F"
C       -0.06354920       0.02615914       0.03273994        0      -0.61994303       0.00339911      -0.13131294      -1.06347156      -1.69855344      -2.53152657
O       -1.09745824      -0.56171083      -0.33384407        0       1.01849531       0.59217127       0.57701624       1.68769550       1.33024824       2.83680916
O        0.59339279       0.04178514       1.16893291        0       0.08205174      -0.08228548      -0.88244169      -0.80654567       0.44091389       0.46264750
O        0.70731479       0.58054012      -0.92796504        0      -0.07365394      -0.56753159       0.28003518      -0.24041879      -0.68082213      -0.26901811
C       -0.18480919      -0.38314587       2.27627182        0      -0.45755212       0.60437632       0.01193137      -0.57640046       1.02758169       1.30319393
C        0.11790480       0.31317315      -2.18905210        0      -0.26478465      -0.03884376       0.01220411      -1.94620287       1.50580084      -1.66386557
H        0.50081283      -0.52887988       3.16355896        0      -0.16172750      -0.25798181      -0.05767634      -0.80158347      -0.16979840      -1.18480802
H       -0.99130619       0.37122315       2.57026887        0       0.05888083      -0.23210245       0.12016372       1.16453862      -0.23881266      -0.29538631
H       -0.79898220      -1.19689691       1.93909299        0       0.20047733       0.01656831      -0.15745278       0.13866748      -1.06569505       0.28126508
H        0.82173383       0.39293513      -3.04121518        0       0.10682728       0.41698294      -0.07450339      -0.06789926      -0.15229553       0.89976984
H       -0.51975018      -0.63449883      -2.23208618        0       0.00449034      -0.18656734       0.16093981       1.32871580       0.91835916       0.08504753
H       -0.68493521       1.15580308      -2.35394812        0       0.10643843      -0.26818552       0.14109670       1.18290472      -1.21692681       0.07587148
12
Properties=species:S:1:pos:R:3:molID:I:1:momenta:R:3:forces:R:3 Nmols=1 Comp=DMC(1) energy=-590.5377197265625 free_energy=-590.5377197265625 stress="0.0 0.0 0.0 0.0 0.0 0.0 0.0 0.0 0.0" pbc="F F F"
C       -0.02664884       0.00216192      -0.02651006        0       1.72684212       0.23407322      -0.60627786      -0.08740056      -0.47225249       1.54711699
O       -1.06345831      -0.52959576      -0.22884502        0      -0.68940874      -0.65273571       1.95866406      -2.08950901      -0.97187924       0.01772387
O        0.57233764       0.06071657       1.14884197        0      -0.56525657       0.38775944       0.62699862      -0.33484131       0.63137025       1.62392247
O        0.69808616       0.54043438      -0.92199941        0      -0.13073136      -0.65723743      -0.42747035       1.00795519       1.03289974      -2.65925694
C       -0.24792248      -0.37151105       2.25424482        0      -0.66587285       0.11988227      -0.14165286       1.32068574       0.06284201       1.64933729
C        0.09008123       0.33276442      -2.26164551        0      -0.16902328       0.67423469      -0.86681478      -0.21091992       1.95067573       1.51923347
H        0.47613586      -0.75313554       3.02184758        0       0.14252337       0.13094865      -0.14280266      -0.16905491       0.85574967      -0.29523620
H       -0.92667845       0.40616843       2.78030574        0       0.27830784      -0.09368299       0.05036439       0.96920836      -1.10397673      -1.42652011
H       -0.68235066      -1.30303692       1.97554372        0      -0.39042700      -0.10758867       0.05522725      -1.35671973      -0.27396044      -0.43876374
H        0.94956629       0.61446792      -2.88222971        0       0.13015334       0.20737448      -0.10657813      -0.74692440      -0.20398432      -0.31984317
H       -0.17569685      -0.73746108      -2.21177190        0       0.28920821      -0.19991181      -0.22475026      -0.32617557       0.72922158      -0.87254971
H       -0.83597777       1.14332108      -2.29217658        0       0.04368487      -0.04311620      -0.17490743       2.02369571      -2.23670578      -0.34516400
12
Properties=species:S:1:pos:R:3:molID:I:1:momenta:R:3:forces:R:3 Nmols=1 Comp=DMC(1) energy=-590.1307373046875 free_energy=-590.1307373046875 stress="0.0 0.0 0.0 0.0 0.0 0.0 0.0 0.0 0.0" pbc="F F F"
C       -0.02193731      -0.05517006       0.00731113        0      -0.72337862      -0.90925432       0.84328797       0.88965511       1.34922194      -0.31488132
O       -1.09856398      -0.54494128      -0.09533711        0      -0.52404729      -0.28319948       1.70996008      -0.90499198      -0.51564795      -1.12278295
O        0.54393598       0.09608289       1.22139447        0      -0.29343178       0.77244741       0.99271181       0.75361884       0.28994843      -2.73751163
O        0.71187361       0.51271354      -1.02040407        0       0.38584139      -0.03119025      -2.12732214      -0.99876022      -0.75433111       1.08884215
C       -0.24405837      -0.43041501       2.24001458        0      -0.13102835      -0.75378051      -0.31151878       1.23660684       3.94003391       2.43713450
C        0.15060669       0.41215041      -2.28992424        0       1.25173935       0.94032786       0.03914752      -1.81522489       0.54822612      -3.75492167
H        0.62901309      -0.64271593       2.90088874        0       0.01275312      -0.31843741       0.14126085      -1.58979833      -0.48414087       0.48245239
H       -0.90151886       0.49946274       2.59495760        0       0.18067496      -0.07718596      -0.10526960       1.17225707      -1.58693767       0.07175031
H       -0.95353009      -1.09922254       1.92406117        0       0.01014343       0.19127407      -0.22771022      -0.99065149      -2.18467283      -0.46982074
H        0.84657440       0.72925757      -3.10827292        0       0.06666562       0.23774966      -0.33761587       0.16930509       0.65092343       1.25464630
H       -0.05963874      -0.57349004      -2.74921263        0      -0.04095081       0.19955871      -0.37910650      -0.12432159      -0.42762345       1.39983034
H       -0.89453239       0.99322003      -2.61398604        0      -0.19498122       0.03169009      -0.23782505       2.20230532      -0.82500005       1.66526246
12
Properties=species:S:1:pos:R:3:molID:I:1:momenta:R:3:forces:R:3 Nmols=1 Comp=DMC(1) energy=-590.2726440429688 free_energy=-590.2726440429688 stress="0.0 0.0 0.0 0.0 0.0 0.0 0.0 0.0 0.0" pbc="F F F"
C       -0.01332103      -0.06187883       0.02136848        0       0.73870207       0.53098003      -0.22503753      -0.96965581       0.56244117      -1.34565854
O       -1.11776905      -0.55261220      -0.04112966        0      -0.32954188      -0.12546693       0.20456192       0.53519207       0.16371536      -1.54567599
O        0.54335958       0.13657779       1.21447365        0       0.82101454       0.90183481      -0.97254350       0.77893925      -0.40648490       0.29431388
O        0.70880155       0.45060606      -1.07353282        0      -0.62915271      -1.46440389       0.40382245       0.28018135      -0.63994706       3.23597050
C       -0.25945121      -0.43260558       2.24773332        0      -0.69206078      -0.51567218       0.34870693      -0.85196429       0.32347831       3.07512546
C        0.21780455       0.46988521      -2.39415626        0       0.21034473       0.20600578      -1.57971719      -2.05194950       0.46383896       1.28738523
H        0.13726847      -1.00137341       3.15408438        0      -0.42799995      -0.24303166       0.11107399       1.29327941       0.92768162      -1.34904170
H       -0.88440425       0.34136758       2.82136988        0      -0.30455076      -0.12554478       0.53170328       0.63629782      -0.45126665      -1.30572987
H       -0.91249270      -1.19942072       1.89698378        0       0.26645618       0.22650547       0.19852388      -0.73924810      -0.21399477      -0.82380569
H        0.89803802       1.17528257      -2.88564883        0       0.30877196       0.35051487       0.33894606       0.09146762      -1.24711037      -0.50955641
H       -0.11353800      -0.56219390      -2.63324957        0       0.14736813      -0.16194040       0.21702322       1.01265907       0.57713449      -0.82834101
H       -0.74520405       1.02459944      -2.35113042        0      -0.10935167       0.42021878       0.42293657      -0.01519904      -0.05948597      -0.18498579
12
Properties=species:S:1:pos:R:3:molID:I:1:momenta:R:3:forces:R:3 Nmols=1 Comp=DMC(1) energy=-590.14013671875 free_energy=-590.14013671875 stress="0.0 0.0 0.0 0.0 0.0 0.0 0.0 0.0 0.0" pbc="F F F"
C       -0.04574847      -0.02529732      -0.01221204        0      -1.01455943      -0.02037391       0.57692504      -0.36976910      -0.40317097       2.16211724
O       -1.11598819      -0.55852801      -0.05094271        0       0.60383406      -0.06218657      -0.69544960      -0.92926157      -0.04517403      -1.05825651
O        0.57652964       0.17891103       1.22393397        0       0.29226284       0.57788450       0.73811155      -1.82586670      -0.78467470      -0.31641009
O        0.67148148       0.35047161      -0.99493377        0      -0.75973511      -1.52800009       0.76528549       0.99011827       1.46199393      -3.07282352
C       -0.27271512      -0.46416547       2.34468281        0       0.35382622      -0.88281712       0.31686013       1.26053834      -0.07147491      -2.98307991
C        0.19283919       0.54570277      -2.46067140        0       0.15881127       0.82832890       0.41609395       1.71060872      -2.61498189       1.15585089
H        0.57522033      -0.97631074       2.88323920        0       0.46842899       0.13069537      -0.49815046      -1.57094538       0.54211485       0.00419610
H       -0.88562837       0.32769998       2.79031529        0      -0.09325178       0.46956126      -0.16200647       0.70534658      -0.32963452       0.29646036
H       -0.98783126      -1.10772541       1.68384640        0       0.24562375       0.46158573       0.16885084       1.18220687       0.36621743       1.92114615
H        1.02659038       0.99860313      -2.97420591        0       0.01219325      -0.12532007      -0.39587039       0.11317562       1.12939203       0.47053969
H        0.27830071      -0.45328511      -3.01727978        0       0.26512919       0.25844631      -0.63054873      -1.00548244       0.68095636       1.20325756
H       -0.75507639       1.03019330      -2.54721763        0      -0.53256329      -0.10780442      -0.60010124      -0.26066911       0.06843655       0.21700197
12
Properties=species:S:1:pos:R:3:molID:I:1:momenta:R:3:forces:R:3 Nmols=1 Comp=DMC(1) energy=-590.438232421875 free_energy=-590.438232421875 stress="0.0 0.0 0.0 0.0 0.0 0.0 0.0 0.0 0.0" pbc="F F F"
C       -0.07377346      -0.01553986       0.07182859        0      -0.07714462       0.36709109       0.55016248      -0.64616966      -0.80714697      -2.54279137
O       -1.12863303      -0.58047010      -0.09510486        0      -1.41611563      -0.48323922      -0.67798682      -0.28132230       0.33353212       0.84303772
O        0.54845810       0.18704614       1.24525476        0      -1.13486286      -0.33874147      -0.40445659      -0.69690949      -0.32239538      -1.95179391
O        0.63152976       0.29357524      -1.05480336        0      -0.03799172      -0.74419137      -2.13109015       1.32584369       1.45031381       0.54327351
C       -0.17836012      -0.41657633       2.30025282        0       1.57600208       0.86608212      -1.06884470       1.32140303      -1.50882137       1.25641310
C        0.21235164       0.56882157      -2.44969342        0       0.67650382       0.37096552       0.30778923       2.91255617      -1.22011495       1.44277263
H        0.67155382      -0.90874722       2.92608543        0      -0.11466695      -0.15964802       0.56186926      -1.49721026       0.53611040      -0.69411981
H       -0.59795099       0.39547571       2.87544804        0       0.34081356       0.14360874       0.50961280      -0.48413232      -0.06761731       0.27896971
H       -0.94194740      -1.21669966       1.98497147        0       0.35141389      -0.08021334       0.57190437       1.10345483       1.30863702       0.27694374
H        0.87554393       1.39590630      -2.82291816        0      -0.21820957       0.48050302       0.73990196      -0.31985676      -1.03990817       0.37889430
H        0.29144622      -0.38674491      -2.98265515        0       0.19438964      -0.44698819       0.33515821       0.59160811       0.20730984      -0.12376102
H       -0.74853358       0.83673288      -2.58310493        0      -0.14013175       0.02477109       0.70597990      -3.32926464       1.13010085       0.29216146
12
Properties=species:S:1:pos:R:3:molID:I:1:momenta:R:3:forces:R:3 Nmols=1 Comp=DMC(1) energy=-590.3917846679688 free_energy=-590.3917846679688 stress="0.0 0.0 0.0 0.0 0.0 0.0 0.0 0.0 0.0" pbc="F F F"
C       -0.15141978      -0.05945337       0.00295244        0      -0.92786957      -1.25194444      -1.94984566       2.57962513       0.24303675      -0.86969012
O       -1.16999684      -0.62668419      -0.08558946        0      -0.74163586      -0.93477801       0.40148480      -2.47708702      -0.73089278      -0.23795773
O        0.50904937       0.17729234       1.15470497        0      -0.27392766      -0.05545215      -1.77447758       0.49222243       0.16050556      -0.57303679
O        0.63683646       0.27231139      -1.09886314        0       0.31714432      -0.44917784       1.95494094       1.45369887      -0.78614372       4.33472776
C       -0.01632729      -0.33704623       2.36120466        0       1.51810198       1.10254556       1.83690961      -1.80780435      -2.87267828      -0.83683807
C        0.21261636       0.60476104      -2.36638380        0      -1.08136071       1.13813590       1.93126174       1.48480463      -0.03944541       0.02250507
H        0.66199190      -0.90154503       2.99944380        0       0.79117565      -0.08868249      -0.11095113       0.67614031       0.20158188      -0.56834006
H       -0.48124975       0.37344320       2.95720544        0      -0.06393972       0.30650757      -0.30941825      -0.57304716       1.83364844       0.84703088
H       -0.89183814      -1.09893621       2.16493764        0      -0.19214176       0.29801865      -0.29720142       1.35639048       1.03564429      -0.15528318
H        0.69554040       1.58158816      -2.42255291        0       0.09092215      -0.06972944      -0.32855423       0.21706867       0.08382747      -1.26154053
H        0.58803186      -0.19209870      -3.06369722        0       0.28290858       0.55647033      -0.77509433      -0.73753428       0.96513593       0.29280010
H       -0.79022120       0.78613008      -2.22199458        0       0.28062247      -0.55191375      -0.57905452      -2.66447735      -0.09422056      -0.99437726
12
Properties=species:S:1:pos:R:3:molID:I:1:momenta:R:3:forces:R:3 Nmols=1 Comp=DMC(1) energy=-589.9108276367188 free_energy=-589.9108276367188 stress="0.0 0.0 0.0 0.0 0.0 0.0 0.0 0.0 0.0" pbc="F F F"
C       -0.19606858      -0.18333217      -0.08193924        0      -0.78393799      -1.60568076      -0.22290942      -0.86084890      -0.22087032       2.17695403
O       -1.28314289      -0.75239378      -0.07670297        0      -1.59437303      -2.20076610      -0.10777750       2.67156816       1.42331791      -0.75017560
O        0.48424040       0.18309028       1.06023161        0      -0.21623658       0.72805291      -1.63102670      -0.43552652      -0.05524778      -0.21735844
O        0.67577925       0.26500907      -0.97341945        0      -0.08158635       0.31499234       1.47529682      -1.77479124       0.48489076      -2.90887976
C        0.09630100      -0.23623793       2.44784947        0       1.13147031       1.97147350       0.29226364      -0.99248141       0.91539484      -3.94939256
C        0.20229198       0.69749251      -2.31907475        0      -0.14601989       0.97865294      -0.80677983       0.54755044      -1.07791090      -0.33727878
H        1.06235137      -0.54917840       2.66928142        0       0.21891573       0.39078249      -0.03890478       0.90681100      -1.04228926       1.54152024
H       -0.21534488       0.70522470       2.86511759        0       0.87195043      -0.05315046       0.09732499      -0.23763375      -0.08103897       0.69009811
H       -0.70005623      -0.90754773       2.12141151        0      -0.02656303      -0.41960476       0.21342221       0.00394149      -0.39732286       1.35509872
H        0.51185649       1.67867916      -2.60559116        0      -0.44808354       0.46705353       0.49394747      -0.18826205       1.17862773       1.05659652
H        0.66809351       0.19376499      -3.14481637        0       0.54254367      -0.48498967       0.08285260       1.36377168      -1.40978932       0.01509875
H       -0.79703419       0.47834461      -2.65635620        0       0.53192032      -0.08681617       0.15229057      -1.00409877       0.28223807       1.32771826
12
Properties=species:S:1:pos:R:3:molID:I:1:momenta:R:3:forces:R:3 Nmols=1 Comp=DMC(1) energy=-589.5062866210938 free_energy=-589.5062866210938 stress="0.0 0.0 0.0 0.0 0.0 0.0 0.0 0.0 0.0" pbc="F F F"
C       -0.26838665      -0.25140911      -0.03291787        0      -0.27987305       0.09353666       0.97818606       2.64735985       2.16297507      -0.23257059
O       -1.28354028      -0.84330346      -0.09186413        0       0.71887363      -1.06118609      -0.56752009      -0.25826496      -0.18477511      -0.38154113
O        0.44897470       0.20400221       1.01037778        0      -1.19470396       0.07975363      -0.22154996      -0.84021705      -0.70629567       1.77171969
O        0.60311491       0.29125862      -0.97313985        0      -1.91798563       0.60738489      -0.86575448      -0.82192373      -0.89866132      -0.14703286
C        0.20295454      -0.13970400       2.36337688        0       2.46675237       0.82889432      -0.51156985       1.32858527       0.62986678       2.50427151
C        0.26971348       0.73963781      -2.36572227        0      -0.01863822      -0.23473055       1.03058810      -3.98654962      -1.51193440       4.69074345
H        1.08115712      -0.59126686       2.84612899        0      -0.12024306      -0.35759320      -0.18791913       0.89320880      -0.15099135      -0.85020339
H        0.11914304       0.72439503       3.11236000        0      -0.20338656      -0.28181486      -0.06442953      -0.58238733      -0.24727593      -1.66511083
H       -0.49403630      -0.87748131       2.68031231        0       0.02716530       0.30311464       0.51677534      -1.53949881      -0.31883809      -0.93090832
H        0.11120744       1.74398535      -2.07843853        0      -0.29476053      -0.35938839       0.01130753       0.68021363       1.47958255      -1.22939539
H        1.04841995       0.26228019      -2.81510711        0       0.23328527       0.48931728      -0.03434507       1.37824249      -0.29105920      -2.09782791
H       -0.79194083       0.32355226      -2.35679663        0       0.58351452      -0.10728852      -0.08376874       1.10123146       0.03740686      -1.43214393
12
Properties=species:S:1:pos:R:3:molID:I:1:momenta:R:3:forces:R:3 Nmols=1 Comp=DMC(1) energy=-589.7908325195312 free_energy=-589.7908325195312 stress="0.0 0.0 0.0 0.0 0.0 0.0 0.0 0.0 0.0" pbc="F F F"
C       -0.24242855      -0.23697489      -0.01323455        0       0.23327214       0.09441548      -0.62199705      -1.19660556      -0.18661571      -0.73727942
O       -1.23083474      -0.90830103      -0.13948401        0       1.39609868      -0.71889635      -0.66829839       0.63015568       0.29187310       0.48996952
O        0.38040160       0.23853896       1.04337806        0      -0.61801577       1.00015204       1.53241670       1.24910152       1.18448615      -0.83167922
O        0.49460014       0.29297327      -0.98946844        0      -0.59908271      -0.09192274       0.21734775       2.04229236       0.04812393       0.80644232
C        0.36954239      -0.13380141       2.38631745        0       0.40461486      -0.40229746       0.79001029      -1.64827442       0.13092315      -0.32583266
C        0.23338587       0.72522347      -2.22615368        0      -1.56926327       0.12993400       0.88495760      -3.69205356       0.79144180      -4.24443579
H        1.22477321      -0.80338904       2.49630827        0       0.12398831       0.03025413      -0.41957670      -0.07526244       0.44235471       0.86763251
H        0.23086375       0.83933179       2.92431121        0       0.72628321       0.00036121      -0.27267899       0.95135713      -0.99525964       0.10233030
H       -0.58122155      -0.63688475       2.45294453        0       0.19072396       0.00945995      -0.77686219      -0.39628574      -0.87542373       0.91218781
H       -0.01680988       1.85418931      -2.31456167        0      -0.29123563      -0.48053946      -0.29985449      -0.67460221      -1.45171237       0.86094153
H        0.97195569       0.75332561      -2.99904659        0      -0.45329455       0.35456160       0.16082509       1.71025884      -0.96919715       0.37483174
H       -0.59549072       0.04643945      -2.84080279        0       0.45591095       0.07451749      -0.52628943       1.09991801       1.58900595       1.72489142
12
Properties=species:S:1:pos:R:3:molID:I:1:momenta:R:3:forces:R:3 Nmols=1 Comp=DMC(1) energy=-590.1553344726562 free_energy=-590.1553344726562 stress="0.0 0.0 0.0 0.0 0.0 0.0 0.0 0.0 0.0" pbc="F F F"
C       -0.23008688      -0.22096773      -0.04100901        0       0.92117302       0.14643064       0.46569280       1.00473666       0.92878044       1.15256166
O       -1.15573242      -0.95413273      -0.14689135        0       0.32581609      -0.58385698       0.32642920      -0.13233131      -0.04670972       0.30729163
O        0.36666280       0.33097698       1.07792873        0       0.05644226       1.51249565      -0.21931307      -0.58117193      -0.43357316      -0.49624014
O        0.53746269       0.31355149      -0.97747000        0       1.15133653       0.79877176      -0.75299595      -0.66778958       0.44394100      -1.69020104
C        0.35996893      -0.18415209       2.40522842        0       0.18561769      -0.74982515      -0.41179947       0.63150108       0.81342399       0.08271471
C        0.08022353       0.71289593      -2.31360945        0      -1.75323773       0.16242371      -1.63129102       0.70037508      -0.24123298      -0.07403040
H        1.19318070      -0.85890212       2.48825310        0      -0.13452297      -0.22020727       0.11240747       0.35420686      -0.91316497      -0.07191940
H        0.77313055       0.70794551       3.03149904        0      -0.13072003      -0.37326705       0.35356491      -1.74424136      -1.26443768      -0.63276929
H       -0.57567272      -0.74627748       2.60870763        0       0.07070799       0.19549909       0.78358913       0.43643430       0.93575168       0.36855164
H       -0.68752054       1.61866350      -2.21418059        0      -0.34749047      -0.53779282       0.39518743       1.92323947      -1.57391262      -0.35318178
H        1.17150781       0.85124506      -2.74974299        0      -0.15690693       0.17083316       0.45721953      -2.43407679       0.56830931       0.25131080
H       -0.42021023      -0.10876719      -2.93152510        0      -0.18821525      -0.52150491       0.12130931       0.50911760       0.78282440       1.15591168
12
Properties=species:S:1:pos:R:3:molID:I:1:momenta:R:3:forces:R:3 Nmols=1 Comp=DMC(1) energy=-589.791015625 free_energy=-589.791015625 stress="0.0 0.0 0.0 0.0 0.0 0.0 0.0 0.0 0.0" pbc="F F F"
C       -0.16997607      -0.20220621      -0.00080754        0       0.11476138       0.30269895      -0.21843515       0.13033402       0.81772906      -0.98122424
O       -1.10221760      -0.96723772      -0.11105196        0       1.91109797       0.63561036       0.66969464       1.69175351       1.12697291       0.23019892
O        0.33786727       0.41977103       1.08152398        0      -0.74458098       0.83996548       0.84862831      -0.21572158      -1.37028956       1.30133772
O        0.58324301       0.37519213      -1.03534086        0       0.09015478       1.17318694      -1.00217126      -1.17164671      -0.29656729       0.32816282
C        0.41052385      -0.23992693       2.40001388        0       0.61092367      -0.48712281       0.68108650      -0.54153371       1.84573531       0.79006296
C       -0.06323448       0.61566667      -2.40132658        0      -1.57146059      -1.85872292       0.34139011       0.88629127       1.18254519       3.76570725
H        1.05244267      -1.09833953       2.37063635        0      -0.13085647      -0.05229946      -0.19095865       0.73931837       0.06218311      -0.00550819
H        0.60227763       0.54895204       3.22931914        0       0.38978705       0.12364878      -0.03953222       0.94255412      -0.79570854      -1.78570628
H       -0.49332799      -0.57465758       2.87237385        0      -0.10842387      -0.07123117      -0.45021957      -1.36654305      -0.56810212      -0.93091941
H       -0.99088152       1.20874816      -1.99312653        0      -0.29377915      -0.23340581      -0.09566984       1.33850539      -0.78984761      -1.76053345
H        0.81115028       1.25430264      -2.88331107        0      -0.62416767       0.26655939      -0.56245324      -2.18110323      -1.55520916       0.47225749
H       -0.26140348      -0.43143155      -2.58526594        0       0.35654396      -0.63888798       0.01864070      -0.25220802       0.34055868      -1.42383575
12
Properties=species:S:1:pos:R:3:molID:I:1:momenta:R:3:forces:R:3 Nmols=1 Comp=DMC(1) energy=-589.9573974609375 free_energy=-589.9573974609375 stress="0.0 0.0 0.0 0.0 0.0 0.0 0.0 0.0 0.0" pbc="F F F"
C       -0.09796557      -0.10571072      -0.03080323        0       1.42593675       1.82469519      -0.26570581      -0.45074677      -0.47800767       0.52616853
O       -0.95434324      -0.93920401      -0.07119932        0       2.26053401       0.27925730       0.46888502      -0.22921926      -0.44351044      -0.61951870
O        0.29016588       0.42704795       1.12376592        0       0.13096367       0.05919543       0.11798458       2.13109708       1.40513301      -0.80429482
O        0.54178835       0.44736213      -1.08748640        0      -1.49606335       1.14909131      -1.18491444      -0.55867684       0.47410637       0.41807571
C        0.40245314      -0.25027532       2.42438701        0      -0.58874349      -0.02283712      -0.76854615       1.07255054       0.43058997      -2.63297558
C       -0.15875152       0.43661679      -2.29430486        0      -1.28214674      -2.25546993       1.41588040      -2.57181430       1.29330635      -3.36457300
H        1.07597272      -1.10292536       2.30259742        0      -0.10060321      -0.14912304       0.01681459      -0.17630529      -0.22935060       0.02334973
H        0.96945744       0.52193714       2.94593548        0      -0.02151956       0.00330608      -0.02473472      -0.98257530      -0.21627267       0.72381383
H       -0.60747342      -0.53311890       2.45713424        0       0.31781749       0.17769118       0.22264602      -1.08773243      -0.47220725       1.84880114
H       -1.29980571       0.81402601      -2.35338308        0      -0.40643688      -0.63730912       0.20021016       1.83855593      -1.15255141       1.30558419
H        0.15189364       1.12389811      -3.13504493        0      -0.21002946      -0.07790375       0.08678668       1.12874341       0.38413575       1.55955851
H       -0.12086281      -0.45077855      -2.92821130        0      -0.02970922      -0.35059379      -0.28530601      -0.11387670      -0.99537134       1.01601052
12
Properties=species:S:1:pos:R:3:molID:I:1:momenta:R:3:forces:R:3 Nmols=1 Comp=DMC(1) energy=-590.0580444335938 free_energy=-590.0580444335938 stress="0.0 0.0 0.0 0.0 0.0 0.0 0.0 0.0 0.0" pbc="F F F"
C       -0.03729899      -0.04817204      -0.03124037        0       0.18405411      -0.24263143       0.09595678       0.12500387      -0.01315290       0.92668664
O       -0.81673624      -0.94382410      -0.05162184        0       2.05348164      -0.51736707      -0.21064416      -1.06266487      -1.40415859      -0.36218339
O        0.37356953       0.47464617       1.12547282        0       2.01358964       1.74234293       0.31038065       0.71131057       1.53701115      -0.75528187
O        0.45090578       0.54704034      -1.10622246        0      -1.17112988       1.76385582       0.55514740       0.16373053       0.18129805       0.74035311
C        0.38914346      -0.24263175       2.29342025        0      -0.46288850      -0.10473379      -1.17186461      -2.22930193      -0.26617950       3.94529605
C       -0.32887684       0.26989840      -2.30416445        0      -2.39611688      -1.88279152      -0.55088923      -0.38824254       2.43991876       2.50139070
H        0.80721012      -1.21311092       2.21670057        0      -0.26788526      -0.11362171      -0.08902281       1.11402512      -0.59934646      -0.20347521
H        0.74080894       0.40776080       3.13905568        0      -0.19658573      -0.28836027       0.26619332       0.96192634      -0.37129292      -1.24763608