12
Properties=species:S:1:pos:R:3:molID:I:1:momenta:R:3:forces:R:3:charge:R:1 Nmols=1 Comp=DMC(1) energy=-589.6902849308997 free_energy=-589.6902849308997 dipole="0.04765691014858872 0.06870959653949897 0.21172223016945782" pbc="F F F"
C       -0.06354920       0.02615914       0.03273994        0       0.70210082      -0.41362832      -0.50043075      -1.10480465      -1.74935772      -2.56668991       0.47127016
O       -1.09745824      -0.56171083      -0.33384407        0       0.13033398      -0.07873373      -0.81626556       1.82966510       1.39045630       2.85528675      -0.46883014
O        0.59339279       0.04178514       1.16893291        0      -0.19154745       0.28617971       0.07791423      -0.82852780       0.42618089       0.49198597      -0.23200909
O        0.70731479       0.58054012      -0.92796504        0      -0.20057733      -0.73892163       1.66291005      -0.37199226      -0.70811741      -0.28837154      -0.25090475
C       -0.18480919      -0.38314587       2.27627182        0      -0.34107844       0.21572599       0.06728815      -0.57910020       1.05533883       1.25905931       0.02408755
C        0.11790480       0.31317315      -2.18905210        0      -0.42395326      -0.55057878      -0.77659536      -1.94280044       1.45788527      -1.67289732       0.03147711
H        0.50081283      -0.52887988       3.16355896        0      -0.10390076      -0.01764583       0.21374804      -0.82243213      -0.17215393      -1.20744938       0.08322969
H       -0.99130619       0.37122315       2.57026887        0       0.17699091       0.52504000       0.00867619       1.19574539      -0.26180058      -0.29331200       0.05368733
H       -0.79898220      -1.19689691       1.93909299        0       0.53733521      -0.15002982      -0.00441332       0.14298628      -1.04896365       0.29163103       0.08471066
H        0.82173383       0.39293513      -3.04121518        0      -0.27028166       0.27598300       0.03536261      -0.07668032      -0.15544425       0.93178879       0.06977969
H       -0.51975018      -0.63449883      -2.23208618        0       0.03857254       0.44509589      -0.18637035       1.35192819       0.97979173       0.12089941       0.08751433
H       -0.68493521       1.15580308      -2.35394812        0      -0.05399456       0.20151353       0.21817609       1.20601285      -1.21381549       0.07806889       0.04598747
12
Properties=species:S:1:pos:R:3:molID:I:1:momenta:R:3:forces:R:3:charge:R:1 Nmols=1 Comp=DMC(1) energy=-589.3704814846153 free_energy=-589.3704814846153 dipole="0.045798776693307106 -0.012359119876248322 0.07962648831712126" pbc="F F F"
C       -0.04568312      -0.04707288      -0.04358445        0       0.74641691      -1.03030577      -0.41253690       1.88368172       1.15401588       2.07453951       0.49162472
O       -1.07016019      -0.54589588      -0.31978282        0      -0.01292163       0.26337097       0.58590113      -2.08624981      -1.38322364       0.81962316      -0.43670917
O        0.56262575       0.07960020       1.17001382        0      -0.69708248       0.77967536      -0.33205422      -1.07465652      -1.08218558      -0.30964164      -0.29512165
O        0.70925959       0.56625356      -0.91393946        0       0.65245913       0.02367478      -1.39777423       0.18650892      -0.92158074      -1.86153776      -0.27186756
C       -0.21317368      -0.37488124       2.30788550        0       0.01292276      -0.85595981       0.55918284       1.80567690      -0.17081783       0.33394773       0.01699956
C        0.06622268       0.32933348      -2.21668132        0      -0.51056345       0.31777707       0.42049299       1.89044886       0.13834988      -0.90806229       0.01917005
H        0.49918102      -0.46886416       3.11876190        0       0.49233889       0.28933054      -0.11633523       0.85740048       0.40429135       0.32068902       0.06716882
H       -0.77536941       0.50252422       2.58156517        0      -0.47118957      -0.07776697       0.10135179      -1.31871072      -0.58248966      -0.00419377       0.08267691
H       -0.51236288      -1.44362986       2.29930581        0      -0.20345824       0.20327036       0.51365375      -1.02755570       1.07280545      -0.91077761       0.07817615
H        0.90953289       0.52675225      -2.98622297        0       0.17093230      -0.05457471       0.27084570      -1.34362864      -0.42713155       1.08020502       0.07052081
H       -0.37003157      -0.77282557      -2.32150167        0       0.30230198      -0.01449893       0.00048953       0.79510232       2.53000686       0.21789861       0.08914906
H       -0.61588683       1.18278224      -2.20368825        0      -0.48215661       0.15600713      -0.19321715      -0.56801782      -0.73204042      -0.85268999       0.08821229
12
Properties=species:S:1:pos:R:3:molID:I:1:momenta:R:3:forces:R:3:charge:R:1 Nmols=1 Comp=DMC(1) energy=-589.1111818734281 free_energy=-589.1111818734281 dipole="0.14998343740620929 0.011786311896392282 0.3197534920954303" pbc="F F F"
C        0.01881169      -0.06789783      -0.01263752        0      -0.39595880       0.36796627       0.13434801      -4.18136495      -0.19341650      -2.75692525       0.47385851
O       -1.09685342      -0.54605105      -0.25764865        0       0.18777587      -0.06932588       1.47793493       1.96241129       0.27009290       0.57269586      -0.48804668
O        0.47789817       0.10517288       1.14494537        0      -0.97473385       0.68660935      -0.02315835       1.44502300       0.24023075       2.30418110      -0.22393563
O        0.73016303       0.52802220      -1.02233589        0      -0.24037867      -0.80234050      -1.56290359      -0.70580070      -0.39994444       2.21271016      -0.26069075
C       -0.12027722      -0.37203307       2.37099172        0       1.03055325      -0.00379680       0.96282910      -2.23616368      -1.68313501      -1.75737468       0.01146539
C        0.04929688       0.38852831      -2.20403178        0       0.46692488       0.16587498      -0.21732076       2.32831499      -3.67688141      -3.28343894       0.04907558
H        0.72236291      -0.27299020       2.94386396        0       0.01477351      -0.16521362       0.10534911       1.42683106      -0.34244544       2.08632965       0.10954971
H       -0.98115010       0.14683298       2.71709224        0       0.13523063       0.02936133      -0.04562213      -0.32999403       1.84493611       0.07409619       0.08219084
H       -0.70388611      -1.36786660       2.37397008        0       0.44831944      -0.05154926      -0.38054023       1.89415981       0.45525418      -0.72157352       0.07744870
H        0.90685464       0.57412571      -2.94814451        0      -0.13293015       0.28047634      -0.34227304      -1.51512007       0.05403830       0.47770720       0.05911911
H       -0.25069574      -0.78021363      -2.37831044        0      -0.09262933      -0.31721994      -0.05293786       0.71204326       2.14847399       0.39052906       0.03748307
H       -0.85326301       0.86450224      -2.44670947        0      -0.44694680      -0.12084227      -0.05570518      -0.80033999       1.28279656       0.40106317       0.07248214
12
Properties=species:S:1:pos:R:3:molID:I:1:momenta:R:3:forces:R:3:charge:R:1 Nmols=1 Comp=DMC(1) energy=-589.4900965077179 free_energy=-589.4900965077179 dipole="0.0432027981579631 0.028547787813945392 0.0232496531509785" pbc="F F F"
C       -0.09028467      -0.00992657      -0.04769720        0      -0.70426131       1.59089164       0.12207861       3.25495519       1.09633739       1.65372938       0.49138534
O       -1.08254270      -0.58605556      -0.19918593        0      -1.28138656      -1.93495474       0.74127485      -3.39223443      -1.76259304      -0.74841646      -0.41462689
O        0.47698973       0.17098597       1.18649877        0       1.95629351       1.93927098       0.44596003       1.62291597       0.87233326      -0.63482804      -0.29423865
O        0.69527303       0.48647057      -1.02572678        0      -0.58654769      -0.58674876       0.83638536       0.17801138       0.32335413       0.03457309      -0.28094592
C       -0.04298367      -0.38078679       2.40504535        0       0.80232739      -0.02837787       0.19322655      -1.08355961      -2.03053433      -2.58563137       0.02732805
C        0.07797669       0.35169603      -2.34878432        0       0.00208353       0.15315180      -1.81358284      -0.71020464      -1.08102012       1.67247660       0.01946758
H        0.59054765      -0.51830518       3.21489302        0      -0.29368093      -0.17717411      -0.08556650       2.32771150       0.41289640       0.83624521       0.07708052
H       -0.76300964       0.31977159       2.76074084        0       0.07814424      -0.29951118      -0.22493063      -1.40148670      -0.24220992       0.01271753       0.07561902
H       -0.26046709      -1.48822566       2.14159451        0      -0.08255687      -0.11104333       0.15950595      -0.97681363       1.67948900       0.45150757       0.06271781
H        0.61014709       0.80403301      -3.18774649        0      -0.00699866      -0.00378490      -0.46538958       0.35433493      -0.43308322       0.71231749       0.08792660
H       -0.16478718      -0.74587147      -2.37675089        0       0.07679531      -0.55037471      -0.29923958       0.40511880       0.86072838      -0.87515152       0.07739650
H       -0.86890215       0.84798781      -2.20077691        0       0.03978804       0.00865516       0.39027778      -0.57874876       0.30430207      -0.52953948       0.07089004
12
Properties=species:S:1:pos:R:3:molID:I:1:momenta:R:3:forces:R:3:charge:R:1 Nmols=1 Comp=DMC(1) energy=-589.458200572291 free_energy=-589.458200572291 dipole="0.02471979634410623 0.07785358348599083 -0.019012452287960977" pbc="F F F"
C       -0.12215727       0.03127826       0.03194957        0      -0.73024219      -0.82469578       0.89626421      -0.49058354      -2.29369937      -1.14928279       0.46236799
O       -1.14248151      -0.67669977      -0.14751841        0       0.42512548      -0.22807738       0.97913141       3.13780800       2.70671728       1.46069106      -0.44837427
O        0.61618829       0.28245779       1.18032786        0       1.18164264       1.47988188      -0.77482909      -3.41197937      -1.88051467      -0.28178786      -0.26640848
O        0.62695897       0.46373881      -1.00833101        0      -1.73978218      -0.44609400      -0.56756088      -1.08878573      -0.24243829      -1.11129086      -0.26015012
C       -0.00996133      -0.40084352       2.35124895        0       0.01486607       0.39595854      -0.97824792      -0.89219316       0.72493313      -0.32710524       0.01732652
C        0.06505338       0.31979253      -2.39729196        0       0.03676933      -0.49732376       0.75003106       1.10598120       1.66588484       2.40619797       0.01494594
H        0.79604335      -0.40783749       3.09284880        0      -0.16254332       0.34707780      -0.24905543      -0.52865352      -0.24148849      -0.21814818       0.08961730
H       -0.95197229       0.09896893       2.71948811        0       0.45393743      -0.20340062       0.22903666       1.25079165       0.74982756      -0.19036019       0.06315429
H       -0.54424566      -1.35957342       2.15489558        0       0.02484290      -0.13922260      -0.09370403       1.51944315       0.03194200      -0.53130914       0.08043502
H        0.70197437       0.84076170      -3.06369313        0       0.53875732       0.36874302       0.44188759       1.07336120       0.62930479      -0.23310444       0.08440709
H       -0.07048879      -0.62037556      -2.77974162        0       0.17356948      -0.27159605      -0.13256177      -0.00770570      -2.70516090      -0.08151230       0.08495642
H       -0.86079364       0.79956274      -2.43602324        0      -0.21694297       0.01874895      -0.50039181      -1.66748417       0.85469212       0.25701197       0.07772231
12
Properties=species:S:1:pos:R:3:molID:I:1:momenta:R:3:forces:R:3:charge:R:1 Nmols=1 Comp=DMC(1) energy=-589.2633795684594 free_energy=-589.2633795684594 dipole="0.1348623835405726 0.021526637540874017 0.04982853073158434" pbc="F F F"
C       -0.11602103      -0.04162912       0.04614100        0       2.08966958       0.09866898      -0.50416739       2.41522272       1.92370111      -1.34744464       0.48633721
O       -1.09747125      -0.65426221      -0.07856290        0      -0.45943607      -0.27922778       1.51972877      -2.85902728      -1.95738145       0.94906042      -0.42096546
O        0.58838138       0.32753587       1.13896243        0      -2.00432350      -0.07703873      -0.40102185      -1.48167524      -0.77115901      -0.32517499      -0.28512093
O        0.50061206       0.41843205      -1.05695735        0      -1.80423528      -0.84353794       0.37084417       1.82443952       1.27851031       4.06251599      -0.27919757
C        0.02758613      -0.35983574       2.29512702        0       1.25932243       1.00469914       0.22903715       0.90393067       1.43126660       0.45473885       0.01821954
C        0.08320062       0.30243798      -2.33205436        0       0.60042182      -0.22123753       0.45597026       0.64602885       0.31690235      -0.01581659       0.03338006
H        0.87616432      -0.41308712       2.98047188        0       0.00828874      -0.15839185      -0.27998122       0.07354078      -0.22761993       0.05841518       0.07426264
H       -0.71210999       0.34906229       2.85923545        0       0.25757029       0.16520759      -0.54765562       0.55659132      -1.73521590      -1.42333530       0.07263019
H       -0.17463971      -1.36147668       1.88256896        0       0.06409252      -0.01103093      -0.42054147      -0.95496614       0.47425394       1.01593080       0.08993055
H        0.81835736       0.91737513      -2.71642310        0      -0.14282608       0.17229783      -0.43011717       1.57162001       1.12231555      -2.12585440       0.08697733
H        0.15502637      -0.66590305      -2.63897258        0       0.23866402       0.24499207       0.09328993       0.20633654      -2.91870999      -1.17236036       0.06316972
H       -0.82540020       0.67802209      -2.60328530        0      -0.10720847      -0.09540086      -0.08538556      -2.90204174       1.06313641      -0.13067496       0.06037671
12
Properties=species:S:1:pos:R:3:molID:I:1:momenta:R:3:forces:R:3:charge:R:1 Nmols=1 Comp=DMC(1) energy=-589.332077650308 free_energy=-589.332077650308 dipole="0.32643643819915374 0.02853061540672387 -0.19897782663172514" pbc="F F F"
C       -0.06276722      -0.07869250      -0.02455628        0      -2.32956891      -1.45870768       0.08605690      -4.55082077      -1.35423626       1.72291696       0.48272155
O       -1.13526726      -0.69074294       0.02687080        0      -0.04435258      -0.10291205       1.48234519       1.89782749       0.34126363      -0.97053538      -0.49527576
O        0.49515455       0.34301599       1.09117460        0      -0.00217894       0.86793790      -0.81491335       2.45803892      -0.18496363       0.17085683      -0.25296634
O        0.50497232       0.46340039      -1.01755252        0       2.05037320       1.62111662      -0.71699920       2.46971228       1.46254416      -1.36227794      -0.23079169
C        0.13223918      -0.30194524       2.26949722        0       0.54641633       0.24772366      -0.44892154      -4.33596650      -0.12938488       0.76329483       0.02912631
C        0.12977867       0.28330289      -2.35947430        0       0.64662969      -0.89061238      -0.96976762       0.13316201      -2.55329192       1.24712793       0.02343424
H        0.92609290      -0.60700563       2.97015553        0      -0.18468215       0.08870441      -0.10556325      -0.39587089       1.04993488      -0.45128728       0.07894526
H       -0.82289253       0.37000489       2.56351334        0      -0.07466962      -0.00828794       0.48024456       2.30673586      -0.91004703       0.94296261       0.06446420
H       -0.51178499      -1.22233274       2.08608986        0      -0.37634059       0.06700266       0.36810053       1.14034147       0.36189342      -0.37287992       0.06484074
H        0.69554156       0.85476349      -2.98992507        0      -0.12364450      -0.23886092       0.15310857       1.59355671       1.80341214      -1.15892619       0.08809173
H        0.32756502      -0.75781978      -2.63089497        0      -0.12410413       0.31492363       0.25439212      -0.27740939      -0.22625645      -0.07498880       0.06529091
H       -0.87093203       0.50715383      -2.44254173        0       0.01612220      -0.50802791       0.23191710      -2.43930719       0.33913195      -0.45626364       0.08211884
12
Properties=species:S:1:pos:R:3:molID:I:1:momenta:R:3:forces:R:3:charge:R:1 Nmols=1 Comp=DMC(1) energy=-589.300823697501 free_energy=-589.300823697501 dipole="0.11264168986619914 -0.008888672116407023 0.07233028499180368" pbc="F F F"
C       -0.19382108      -0.04534681       0.00678765        0       0.58597839       2.68520690      -0.27807302       1.68902864       0.84810889      -0.70317443       0.46722325
O       -1.18008024      -0.73755197       0.06636602        0      -2.11970114      -1.10801564       0.16373481       1.37630226       1.10006228      -1.39327687      -0.40240527
O        0.51498729       0.36427694       1.06087695        0      -0.03201541      -0.74612838      -0.05776593      -0.96750907      -0.13612627       0.46131152      -0.22925603
O        0.61030501       0.50198636      -1.06700254        0       0.37138566      -0.33647733      -0.17269069      -2.60477112      -1.63588811       1.27714495      -0.29991227
C        0.07372598      -0.23941143       2.26659573        0      -0.10222366       1.24037944       1.02885738       2.81020390       0.31490314       2.74551177       0.01173092
C        0.15328640       0.17986072      -2.38302768        0       0.34008800      -1.84391545      -0.75492937       0.97713919      -2.01919859       1.26090253       0.02681522
H        1.00116256      -0.38844001       2.91863933        0       0.17748200       0.15328587      -0.46919623       0.23652936      -1.01842230      -1.50043271       0.06062998
H       -0.25482269       0.38024338       3.11924741        0       0.44064477       0.35396110       0.51278640      -1.93200788       0.54799353      -1.44460117       0.08004701
H       -0.39282112      -1.18215304       2.05653780        0       0.19702987      -0.19283303      -0.19766005      -0.53779041      -0.04617319       0.32846579       0.08762296
H        0.71058910       0.78558704      -3.04238775        0      -0.29514656      -0.43130842       0.25386351       0.36224598       0.56955536      -0.71547028       0.08343317
H        0.31930212      -0.91795538      -2.57675976        0       0.09797236       0.25771668       0.11883022       0.30996963       0.79182502       0.01391051       0.04748303
H       -0.88469835       0.27103827      -2.42214017        0       0.33850573      -0.03187174      -0.14775704      -1.71934048       0.68336023      -0.33029162       0.06658804
12
Properties=species:S:1:pos:R:3:molID:I:1:momenta:R:3:forces:R:3:charge:R:1 Nmols=1 Comp=DMC(1) energy=-589.4571878637811 free_energy=-589.4571878637811 dipole="0.22002581727262757 0.11576610806265734 -0.01313521034087944" pbc="F F F"
C       -0.22653208       0.09706959      -0.01843578        0      -1.77206336      -0.21212412      -0.41692513      -0.96293271      -3.86876718       0.23396970       0.47407172
O       -1.17010813      -0.70660331       0.01469814        0       2.45230910       2.52554998      -1.44352034       1.38855051       2.30435274      -0.88503081      -0.47414072
O        0.46577232       0.36285354       1.06662381        0      -1.02671059       0.44999862       0.31505463       0.28304535       1.96057382       0.07009391      -0.27543543
O        0.54292318       0.44644108      -1.06073942        0      -2.35863798      -0.80930113      -0.13148805      -0.68962114       0.33041654      -0.34826859      -0.27168063
C        0.18267947      -0.15010290       2.39106606        0       3.19032258       0.53248126       1.12308107       2.16987195      -1.33393706      -2.91831313       0.00573605
C        0.17972665       0.00227531      -2.39359880        0       0.32144743      -2.35501619      -0.26816647       2.06084398      -0.66008411       0.61275981       0.02617122
H        1.23537308      -0.47292487       2.49686929        0      -0.09597611       0.21005382       0.11342423      -0.53460037       0.50491825       1.77802702       0.10771841
H       -0.36891287       0.52508591       2.94722395        0      -0.51488872       0.29923126      -0.18277571      -0.25333650       1.31460919       1.30073945       0.09339443
H       -0.36003955      -1.04063543       2.24335835        0      -0.53809070       0.12685368       0.50816630      -1.10972319      -1.23799951       0.01344681       0.08254226
H        0.74918226       0.66376756      -3.09886080        0      -0.06182420      -0.33757339       0.30707006      -0.39724832      -0.67958677       0.66796537       0.07813492
H        0.55658693      -1.10111424      -2.47270523        0       0.04663806      -0.06812173       0.08254748      -0.99857296       1.79003186      -0.15442999       0.07005227
H       -0.86022450       0.16989805      -2.50163168        0       0.35747449      -0.36203206      -0.00646809      -0.95627660      -0.42452778      -0.37095953       0.08343551
12
Properties=species:S:1:pos:R:3:molID:I:1:momenta:R:3:forces:R:3:charge:R:1 Nmols=1 Comp=DMC(1) energy=-588.9199433220192 free_energy=-588.9199433220192 dipole="0.35965979009901855 0.08084761288069735 0.1187306113539453" pbc="F F F"
C       -0.18808074       0.09253826      -0.01835729        0       1.94947515       0.29281357       0.49297589      -3.12576199      -4.25691929       0.89199928       0.49165673
O       -1.15669770      -0.65331427      -0.11096738        0      -2.50847753      -1.40988423      -1.71236838       0.13003259       0.57787296       1.00820062      -0.50024432
O        0.41251816       0.43074213       1.09431312        0       0.51065083       1.46868747       0.55526156       1.88878682       0.38673420       0.55667768      -0.28030046
O        0.42201844       0.41484227      -1.08788001        0      -1.22718438       0.48988334      -0.95565573       2.67238620       2.02794988      -1.53228607      -0.24194895
C        0.30657077      -0.09523828       2.45993062        0       0.22623149       0.77369190       0.81415651       2.19901144       0.48379625      -1.42799137       0.01965491
C        0.20582040      -0.15425043      -2.36327853        0      -0.04994885      -1.37666896       0.74426051       0.19580222      -0.86264570      -1.03432715       0.03972510
H        1.27181722      -0.29664205       3.02235642        0      -0.35609919       0.30271658       0.18300069      -0.63437335      -0.17520247      -1.60229582       0.07645250
H       -0.04881042       0.74333539       2.88613930        0       0.85111711       0.50706306       0.17181569      -1.31512302       3.12504283       2.20513388       0.08890116
H       -0.40816205      -0.80145257       2.63045400        0       0.46851865       0.07621192       0.08716990      -1.56638271      -2.44392642      -0.23934714       0.08555650
H        0.82336102       0.59971382      -3.00787871        0      -0.27500718      -0.37371877      -0.08189135      -1.13752733      -1.84701708       0.65823214       0.08530123
H        0.52582468      -1.30277816      -2.41407986        0       0.02117480      -0.26127058      -0.08172081       0.03237946       2.34043500       0.18071496       0.05994293
H       -0.86749448      -0.23930495      -2.66777669        0       0.38954910      -0.48952530      -0.21700448       0.66076967       0.64387984       0.33528899       0.07530268
12
Properties=species:S:1:pos:R:3:molID:I:1:momenta:R:3:forces:R:3:charge:R:1 Nmols=1 Comp=DMC(1) energy=-588.7542767648417 free_energy=-588.7542767648417 dipole="0.13464881659684985 -0.2432754128259585 0.24008388566981032" pbc="F F F"
C       -0.24890928      -0.06253744       0.01246819        0      -1.59506275      -2.51396149       0.77348627       4.61433905       4.46194723      -0.46834787       0.47100640
O       -1.20855003      -0.67930754      -0.15961357        0       0.44195515      -0.04736154      -0.27538069      -2.04846514      -1.93400006       1.30492431      -0.33385873
O        0.46145333       0.52847467       1.12236554        0       0.55960862       1.01322564      -0.16157160      -1.93610549      -2.00265600      -1.07506731      -0.30163634
O        0.42241839       0.48771435      -1.15848610        0       0.35408048       0.84504149      -0.98207368      -0.75855385      -1.36653625       1.64699410      -0.29478999
C        0.33034123       0.04625969       2.53372157        0       0.64765181       2.14157871       1.02743581       3.17555704      -3.78946854      -4.10533431       0.02089161
C        0.20262917      -0.29258183      -2.32754552        0      -0.20785427      -1.33085182       0.23212685       1.28082022       0.67825100      -2.56750060       0.04560271
H        1.36969968      -0.52314810       2.74204121        0      -0.04926284      -0.27530825      -0.81122183      -1.75330724       1.49062458      -0.22886581       0.05811638
H        0.18172494       0.82621996       3.13595121        0      -0.40264983      -0.41934473       0.00290749      -0.56671133       2.74335604       2.05844841       0.09852915
H       -0.35609908      -0.76595486       2.58229453        0       0.08900215       0.85479546      -0.35017417      -1.01783863      -0.20539549       0.07946723       0.07204848
H        0.69623014       0.29786572      -3.25450206        0      -0.15793919      -0.09187090      -0.04840144      -0.66966189      -0.82665339       2.10665060       0.05255618
H        0.82972322      -1.26285912      -2.28255383        0       0.39046396      -0.21145066       0.22292135      -1.48544278       1.15731782       0.04525370       0.04877805
H       -0.86877981      -0.36432877      -2.70999984        0      -0.06999329       0.03550810       0.36994564       1.16537004      -0.40678695       1.20337756       0.06275609
12
Properties=species:S:1:pos:R:3:molID:I:1:momenta:R:3:forces:R:3:charge:R:1 Nmols=1 Comp=DMC(1) energy=-588.6481043805777 free_energy=-588.6481043805777 dipole="0.3781401718044263 -0.04985402924450379 0.42175608964630595" pbc="F F F"
C       -0.16149012      -0.05884892       0.05004727        0       1.42048373       1.46457275      -0.36911929      -4.15018981      -0.60143090      -3.36527291       0.45226918
O       -1.22975595      -0.76393542      -0.15810460        0       0.73150316      -1.28301766       0.92640822       5.12386575       2.63082116       2.56978060      -0.45419711
O        0.43330894       0.53333799       1.06343050        0      -1.38925025      -0.18913078      -2.05685155      -0.27215867       0.35305023      -0.38427910      -0.24160662
O        0.40989784       0.49476386      -1.14014048        0      -1.01458463      -0.69518473       1.40936221       0.47554685      -0.99576395       2.14991998      -0.29695678
C        0.36030632       0.13771757       2.48001766        0      -1.40043741       1.01951825      -1.89599101      -1.88842006      -1.50030775      -2.15616479       0.00990762
C        0.22291479      -0.33047052      -2.29509271        0      -0.20847496       0.46240901       1.10125397      -0.52380582       0.23717446       0.41892382       0.02249597
H        1.27138254      -0.53811743       2.40977437        0       0.26934603      -0.03943491       0.57497614      -1.22037197       0.76702791       1.65491714       0.10508639
H        0.18573281       0.97751282       3.19015963        0       0.84175500      -0.23377028      -0.52924537       1.13036957      -0.43946757      -0.87029538       0.10049008
H       -0.67106171      -0.37404517       2.47008796        0       0.38659420       0.34831816       0.23315209       1.53400286      -0.20948460       0.61886098       0.08031182
H        0.56099168       0.32894688      -3.17756315        0       0.00387794       0.12129471      -0.05835831      -0.62261129      -1.43745903       1.32025002       0.07942767
H        0.75639591      -1.31427757      -2.11279799        0       0.13772155      -0.60016309       0.29190231      -0.16110878       1.16881694      -0.73581560       0.05106659
H       -0.86725708      -0.55755428      -2.18854450        0       0.22146563      -0.37541143       0.37251060       0.57488136       0.02702310      -1.22082475       0.09170519
12
Properties=species:S:1:pos:R:3:molID:I:1:momenta:R:3:forces:R:3:charge:R:1 Nmols=1 Comp=DMC(1) energy=-588.516245733661 free_energy=-588.516245733661 dipole="0.28453543796769165 -0.0942739866751743 0.0526826977657741" pbc="F F F"
C       -0.22788758      -0.04693294      -0.03811683        0      -1.49300505      -0.06427477      -1.02595618       5.21227050       4.57204037       1.33637794       0.51623097
O       -1.08350572      -0.75458104      -0.03049804        0       1.48118828      -0.12041463       3.14236779      -7.46388563      -6.51847361       0.31925210      -0.41189410
O        0.35925803       0.53355507       0.97346164        0      -0.93905809       0.24419087      -0.47176772       1.34087378       0.62494218       1.09533990      -0.26219453